  ___ ___ ___ _ _ _
 |   |   |_  | | | |
 | | | | | . | | | |
 |__ |  _|___|_____| - 25.1.1b1
 |___|_|

User:   wyl@wyl-Lenovo-Legion-R9000P2021H
Date:   Sat Mar 29 15:43:45 2025
Arch:   x86_64
Pid:    5413
CWD:    /home/wyl/2025
Python: 3.12.7
gpaw:   /home/wyl/anaconda3/lib/python3.12/site-packages/gpaw
_gpaw:  /home/wyl/anaconda3/lib/python3.12/site-packages/
        _gpaw.cpython-312-x86_64-linux-gnu.so (8484859079)
ase:    /home/wyl/anaconda3/lib/python3.12/site-packages/ase (version 3.24.0)
numpy:  /home/wyl/anaconda3/lib/python3.12/site-packages/numpy (version 1.26.4)
scipy:  /home/wyl/anaconda3/lib/python3.12/site-packages/scipy (version 1.13.1)
libxc:  5.2.3
units:  Angstrom and eV
cores: 1
OpenMP: False
OMP_NUM_THREADS: 1

input parameters:
  kpts={'size': array([6, 6, 1])},
  mode={'ecut': 400, 'name': 'pw'}
environment variables:
  GPAW_NEW=False,
  GPAW_NO_C_EXTENSION=False,
  GPAW_USE_GPUS=False,
  GPAW_SETUP_PATH='/home/wyl/gpaw-setups-24.11.0',
  GPAW_CPUPY=False
                     
                     
                     
                     
            S        
                     
       Mo            
                     
            S        
                     
                     
                     
                     

Positions:
   0 Mo     0.000000    0.000000    5.065000    ( 0.0000,  0.0000,  0.0000)
   1 S      1.592000    0.919142    6.630000    ( 0.0000,  0.0000,  0.0000)
   2 S      1.592000    0.919142    3.500000    ( 0.0000,  0.0000,  0.0000)

Unit cell:
           periodic     x           y           z      points  spacing
  1. axis:    yes    3.184000    0.000000    0.000000    15     0.1838
  2. axis:    yes   -1.592000    2.757425    0.000000    15     0.1838
  3. axis:    no     0.000000   -0.000000   10.130000    48     0.2110

  Lengths:   3.184000   3.184000  10.130000
  Angles:   90.000000  90.000000 120.000000

Effective grid spacing dv^(1/3) = 0.2019

symmetry:
  number of symmetries: 12
  rotations: [
    [[ 1,  1,  0], [ 0, -1,  0], [ 0,  0,  1]],
    [[ 1,  1,  0], [ 0, -1,  0], [ 0,  0, -1]],
    [[ 1,  0,  0], [ 0,  1,  0], [ 0,  0,  1]],
    [[ 1,  0,  0], [ 0,  1,  0], [ 0,  0, -1]],
    [[ 0,  1,  0], [-1, -1,  0], [ 0,  0,  1]],
    [[ 0,  1,  0], [-1, -1,  0], [ 0,  0, -1]],
    [[ 0, -1,  0], [-1,  0,  0], [ 0,  0,  1]],
    [[ 0, -1,  0], [-1,  0,  0], [ 0,  0, -1]],
    [[-1,  0,  0], [ 1,  1,  0], [ 0,  0,  1]],
    [[-1,  0,  0], [ 1,  1,  0], [ 0,  0, -1]],
    [[-1, -1,  0], [ 1,  0,  0], [ 0,  0,  1]],
    [[-1, -1,  0], [ 1,  0,  0], [ 0,  0, -1]]]

bz sampling:
  number of bz points: 36
  number of ibz points: 12
  your k-points are not as symmetric as your crystal!
  monkhorst-pack size: [6, 6, 1]
  monkhorst-pack shift: [0, 0, 0]
  points and weights: [
    [[  0.08333333,  -0.08333333,   0.00000000], 0.05555556],  # 0
    [[  0.08333333,   0.08333333,   0.00000000], 0.05555556],  # 1
    [[  0.25000000,  -0.25000000,   0.00000000], 0.05555556],  # 2
    [[  0.25000000,  -0.08333333,   0.00000000], 0.11111111],  # 3
    [[  0.25000000,   0.08333333,   0.00000000], 0.11111111],  # 4
    [[  0.25000000,   0.25000000,   0.00000000], 0.05555556],  # 5
    [[  0.41666667,  -0.41666667,   0.00000000], 0.05555556],  # 6
    [[  0.41666667,  -0.25000000,   0.00000000], 0.11111111],  # 7
    [[  0.41666667,  -0.08333333,   0.00000000], 0.11111111],  # 8
    [[  0.41666667,   0.08333333,   0.00000000], 0.11111111],  # 9
    # ...
    [[  0.41666667,   0.41666667,   0.00000000], 0.05555556]]  # 11

plane wave coefficients: 1635
cutoff: 400.0 eV

spin-components: 1  # (collinear spins)
bands: 20
valence electrons: 26.0
spin-degeneracy: 2
dtype: complex128

memory:
    storage: CPU
    wave functions: 6_178_560  # bytes  (6_178_560 per core)

parallelization:
    kpt:    1
    domain: 1
    band:   1

density:
  components: 1
  grid points: [15 15 48]
  charge: 0.0  # |e|

potential:
  grid points: [15 15 48]

species:
  Mo:
    name: Molybdenum
    id: ac24daaf086600a00ce6d19a74574df1
    Z: 42.0
    valence: 14
    core: 28
    charge: 0.0
    file: /home/wyl/gpaw-setups-24.11.0/Mo.LDA.gz
    compensation charges: {type: gauss,
                           rc: 0.38,
                           lmax: 2}
    cutoffs: {filter: 2.16,
              core: 1.42}
    projectors:
      #              energy  rcut
      - 4s(2.00)   -64.384   1.238
      - 5s(1.00)    -4.319   1.238
      - 4p(6.00)   -38.595   1.296
      - 5p(0.00)    -1.161   1.296
      - 4d(5.00)    -3.933   1.296
      -  d          23.278   1.296
  
    # Using partial waves for Mo as LCAO basis

  S:
    name: Sulfur
    id: a5eb49d7597a2879c13719b04c71318f
    Z: 16.0
    valence: 6
    core: 10
    charge: 0.0
    file: /home/wyl/gpaw-setups-24.11.0/S.LDA.gz
    compensation charges: {type: gauss,
                           rc: 0.24,
                           lmax: 2}
    cutoffs: {filter: 1.77,
              core: 1.66}
    projectors:
      #              energy  rcut
      - 3s(2.00)   -17.278   0.974
      - 3p(4.00)    -7.106   0.979
      -  s           9.933   0.974
      -  p          20.105   0.979
      -  d           0.000   0.900
  
    # Using partial waves for S as LCAO basis

Reference energy: -131668.980924  # eV

eigensolver:
  {'converge_bands': 'occupied', 'name': 'Davidson', 'niter': 2}
Density mixing:
  Method: separate
  Backend: pulay
  Linear mixing parameter: 0.05
  old densities: 5
  Damping of long wavelength oscillations: 50
occupation numbers:
  Fermi-Dirac:
    width: 0.1000  # eV
  

<gpaw.new.pw.paw_poisson.SlowPAWPoissonSolver object at 0x7a757bd91430>
xc functional:
  name: None

convergence criteria:
- Maximum [total energy] change in last 3 cyles: 0.0005 eV / valence electron
- Maximum integral of absolute [dens]ity change: 0.0001 electrons / valence electron
- Maximum integral of absolute [eigenst]ate change: 4e-08 eV^2 / valence electron
maximum number of iterations: 333

     iter     time        total  log10-change:
                         energy   eigst   dens
iter:   1 15:43:45   -26.210808   +0.33
iter:   2 15:43:46   -25.785530   -0.69  -1.13
iter:   3 15:43:46   -24.975218   -1.15  -1.18
iter:   4 15:43:47   -24.812785   -1.83  -1.32
iter:   5 15:43:47   -24.744167   -1.20  -1.41
iter:   6 15:43:47   -24.856012   -1.58  -1.68
iter:   7 15:43:48   -24.679994   -1.45  -1.63
iter:   8 15:43:48   -24.637954   -2.81  -1.91
iter:   9 15:43:49   -24.642590   -2.94  -2.59
iter:  10 15:43:49   -24.639678c  -2.90  -2.54
iter:  11 15:43:49   -24.637271c  -3.91  -2.59
iter:  12 15:43:50   -24.637264c  -4.58  -3.29
iter:  13 15:43:50   -24.637557c  -4.34  -3.36
iter:  14 15:43:51   -24.637254c  -4.78  -3.11
iter:  15 15:43:51   -24.637245c  -5.52  -3.59
iter:  16 15:43:52   -24.637245c  -5.87  -3.77
iter:  17 15:43:52   -24.637245c  -6.94  -3.86
iter:  18 15:43:52   -24.637244c  -7.13  -3.88
iter:  19 15:43:53   -24.637244c  -6.46  -3.89
iter:  20 15:43:53   -24.637243c  -7.30  -4.04c
iter:  21 15:43:54   -24.637243c  -7.12  -4.17c
iter:  22 15:43:54   -24.637243c  -7.73c -4.26c
Converged in 22 steps
Energy contributions relative to reference atoms: (reference = -131668.980924)

entropy:          -0.000041
spinorbit:         0.000000
coulomb:          -1.162901
external:          0.000000
zero:             -0.156966
kinetic:          -5.797350
xc:              -17.520006
----------------------------
Free energy:     -24.637263
Extrapolated:    -24.637243

dipole moment: [-2.421359, -12.397877, 0.000003]  # |e|*Ang


Fermi level: 2.805

kpt = [0.083, -0.083, 0.000], weight = 0.056:
  Band      eig [eV]   occ [0-2]
     0       -58.821       2.000
   ...
     5       -10.723       2.000
     6        -3.509       2.000
     7        -0.861       2.000
     8        -0.527       2.000
     9        -0.304       2.000
    10         0.307       2.000
    11         0.798       2.000
    12         1.867       2.000
    13         4.545       0.000
    14         4.646       0.000
    15         4.827       0.000
    16         4.868       0.000
    17         7.363       0.000
    18         8.667       0.000
    19         9.805       0.000

kpt = [0.083, 0.083, 0.000], weight = 0.056:
  Band      eig [eV]   occ [0-2]
     0       -58.816       2.000
   ...
     5       -10.638       2.000
     6        -3.300       2.000
     7        -1.229       2.000
     8        -0.729       2.000
     9        -0.334       2.000
    10        -0.070       2.000
    11         0.996       2.000
    12         1.733       2.000
    13         4.293       0.000
    14         4.391       0.000
    15         4.617       0.000
    16         5.200       0.000
    17         7.672       0.000
    18         9.443       0.000
    19         9.993       0.000

kpt = [0.250, -0.250, 0.000], weight = 0.056:
  Band      eig [eV]   occ [0-2]
     0       -58.805       2.000
   ...
     5       -10.413       2.000
     6        -3.004       2.000
     7        -1.830       2.000
     8        -1.599       2.000
     9        -0.503       2.000
    10         0.186       2.000
    11         0.652       2.000
    12         1.221       2.000
    13         4.054       0.000
    14         4.281       0.000
    15         4.790       0.000
    16         5.696       0.000
    17         8.315       0.000
    18        10.212       0.000
    19        10.329       0.000
(only showing first 3 out of 12 k-points)

Gap: 1.953 eV
Transition (v -> c):
  (s=0, k=0, n=12, [0.08, -0.08, 0.00]) -> (s=0, k=10, n=13, [0.42, 0.25, 0.00])
Direct/indirect transitions are different
Direct gap: 2.097 eV
Transition at: (s=0, k=10, n=12, [0.42, 0.25, 0.00])
vacuum-level: 8.109  # V
---

timing:  # [seconds]
  Total: 935.354  # ━━━━━━━━━━━━━━━━━━━━━━━━━━━━━━━━━━━━━━━━━━━━━━━━━━━━━━━━━
  Init:    0.390  # 
  SCF:     9.291  # ╸

Max RSS: 804.141  # MiB
