
  ___ ___ ___ _ _ _  
 |   |   |_  | | | | 
 | | | | | . | | | | 
 |__ |  _|___|_____|  25.1.1b1
 |___|_|             

User:   wyl@wyl-Lenovo-Legion-R9000P2021H
Date:   Sat Mar 29 14:45:35 2025
Arch:   x86_64
Pid:    5413
CWD:    /home/wyl/2025
Python: 3.12.7
gpaw:   /home/wyl/anaconda3/lib/python3.12/site-packages/gpaw
_gpaw:  /home/wyl/anaconda3/lib/python3.12/site-packages/
        _gpaw.cpython-312-x86_64-linux-gnu.so (8484859079)
ase:    /home/wyl/anaconda3/lib/python3.12/site-packages/ase (version 3.24.0)
numpy:  /home/wyl/anaconda3/lib/python3.12/site-packages/numpy (version 1.26.4)
scipy:  /home/wyl/anaconda3/lib/python3.12/site-packages/scipy (version 1.13.1)
libxc:  5.2.3
units:  Angstrom and eV
cores: 1
OpenMP: False
OMP_NUM_THREADS: 1

Input parameters:
  kpts: [8 8 8]
  mode: {ecut: 200.0,
         name: pw}
  occupations: {fixmagmom: False,
                name: fermi-dirac,
                width: 0.01}
  random: True
  xc: PBE

System changes: positions, numbers, cell, pbc, initial_charges, initial_magmoms 

Initialize ...

species:
  Si:
    name: Silicon
    id: ee77bee481871cc2cb65ac61239ccafa
    Z: 14.0
    valence: 4
    core: 10
    charge: 0.0
    file: /home/wyl/gpaw-setups-24.11.0/Si.PBE.gz
    compensation charges: {type: gauss,
                           rc: 0.33,
                           lmax: 2}
    cutoffs: {filter: 1.86,
              core: 2.06}
    projectors:
      #              energy  rcut
      - 3s(2.00)   -10.812   1.058
      - 3p(2.00)    -4.081   1.058
      -  s          16.399   1.058
      -  p          23.130   1.058
      -  d           0.000   1.058
  
    # Using partial waves for Si as LCAO basis

Reference energy: -15772.688500  # eV

Spin-paired calculation

Convergence criteria:
 Maximum [total energy] change in last 3 cyles: 0.0005 eV / valence electron
 Maximum integral of absolute [dens]ity change: 0.0001 electrons / valence electron
 Maximum integral of absolute [eigenst]ate change: 4e-08 eV^2 / valence electron
 Maximum number of scf [iter]ations: 333
 (Square brackets indicate name in SCF output, whereas a 'c' in
 the SCF output indicates the quantity has converged.)

Symmetries present (total): 24

  ( 1  0  0)  ( 1  0  0)  ( 1  0 -1)  ( 1  0 -1)  ( 1 -1  0)  ( 1 -1  0)
  ( 0  1  0)  ( 0  0  1)  ( 0  1 -1)  ( 0  0 -1)  ( 0 -1  1)  ( 0 -1  0)
  ( 0  0  1)  ( 0  1  0)  ( 0  0 -1)  ( 0  1 -1)  ( 0 -1  0)  ( 0 -1  1)

  ( 0  1  0)  ( 0  1  0)  ( 0  1 -1)  ( 0  1 -1)  ( 0  0  1)  ( 0  0  1)
  ( 1  0  0)  ( 0  0  1)  ( 1  0 -1)  ( 0  0 -1)  ( 1  0  0)  ( 0  1  0)
  ( 0  0  1)  ( 1  0  0)  ( 0  0 -1)  ( 1  0 -1)  ( 0  1  0)  ( 1  0  0)

  ( 0  0 -1)  ( 0  0 -1)  ( 0 -1  1)  ( 0 -1  1)  ( 0 -1  0)  ( 0 -1  0)
  ( 1  0 -1)  ( 0  1 -1)  ( 1 -1  0)  ( 0 -1  0)  ( 1 -1  0)  ( 0 -1  1)
  ( 0  1 -1)  ( 1  0 -1)  ( 0 -1  0)  ( 1 -1  0)  ( 0 -1  1)  ( 1 -1  0)

  (-1  1  0)  (-1  1  0)  (-1  0  1)  (-1  0  1)  (-1  0  0)  (-1  0  0)
  (-1  0  1)  (-1  0  0)  (-1  1  0)  (-1  0  0)  (-1  1  0)  (-1  0  1)
  (-1  0  0)  (-1  0  1)  (-1  0  0)  (-1  1  0)  (-1  0  1)  (-1  1  0)
Note: your k-points are not as symmetric as your crystal!

512 k-points: 8 x 8 x 8 Monkhorst-Pack grid
60 k-points in the irreducible part of the Brillouin zone
       k-points in crystal coordinates                weights
   0:     0.06250000    0.06250000   -0.06250000          6/512
   1:     0.06250000    0.06250000    0.06250000          2/512
   2:     0.18750000   -0.06250000   -0.06250000          6/512
   3:     0.18750000    0.06250000   -0.18750000         12/512
   4:     0.18750000    0.06250000   -0.06250000         12/512
   5:     0.18750000    0.06250000    0.06250000          6/512
   6:     0.18750000    0.18750000   -0.18750000          6/512
   7:     0.18750000    0.18750000   -0.06250000          6/512
   8:     0.18750000    0.18750000    0.06250000          6/512
   9:     0.18750000    0.18750000    0.18750000          2/512
          ...
  59:     0.43750000    0.43750000    0.43750000          2/512

Wave functions: Plane wave expansion
  Cutoff energy: 200.000 eV
  Number of coefficients (min, max): 251, 271
  Pulay-stress correction: 0.000000 eV/Ang^3 (de/decut=0.000000)
  Using Numpy's FFT
  ScaLapack parameters: grid=1x1, blocksize=None
  Wavefunction extrapolation:
    Improved wavefunction reuse through dual PAW basis 

Occupation numbers: Fermi-Dirac:
  width: 0.0100  # eV
 

Eigensolver
   Davidson(niter=2) 

Densities:
  Coarse grid: 14*14*14 grid
  Fine grid: 28*28*28 grid
  Total Charge: 0.000000 

Density mixing:
  Method: separate
  Backend: pulay
  Linear mixing parameter: 0.05
  old densities: 5
  Damping of long wavelength oscillations: 50 

Hamiltonian:
  XC and Coulomb potentials evaluated on a 28*28*28 grid
  Using the PBE Exchange-Correlation functional
  External potential:
    NoExternalPotential
 

XC parameters: PBE with 2 nearest neighbor stencil

Memory estimate:
  Process memory now: 209.17 MiB
  Calculator: 5.63 MiB
    Density: 1.03 MiB
      Arrays: 0.54 MiB
      Localized functions: 0.27 MiB
      Mixer: 0.21 MiB
    Hamiltonian: 0.36 MiB
      Arrays: 0.36 MiB
      XC: 0.00 MiB
      Poisson: 0.00 MiB
      vbar: 0.01 MiB
    Wavefunctions: 4.24 MiB
      Arrays psit_nG: 1.98 MiB
      Eigensolver: 0.06 MiB
      Projections: 0.19 MiB
      Projectors: 1.65 MiB
      PW-descriptor: 0.35 MiB

Total number of cores used: 1

Number of atoms: 2
Number of atomic orbitals: 8
Number of bands in calculation: 8
Number of valence electrons: 8
Bands to converge: occupied

... initialized

Initializing position-dependent things.

Density initialized from atomic densities
Creating initial wave functions:
  8 bands from LCAO basis set

                    
                    
                    
                    
           Si       
                    
       Si           
                    
                    
                    
                    

Positions:
   0 Si     0.000000    0.000000    0.000000    ( 0.0000,  0.0000,  0.0000)
   1 Si     1.357500    1.357500    1.357500    ( 0.0000,  0.0000,  0.0000)

Unit cell:
           periodic     x           y           z      points  spacing
  1. axis:    yes    0.000000    2.715000    2.715000    14     0.2239
  2. axis:    yes    2.715000    0.000000    2.715000    14     0.2239
  3. axis:    yes    2.715000    2.715000    0.000000    14     0.2239

  Lengths:   3.839590   3.839590   3.839590
  Angles:   60.000000  60.000000  60.000000

Effective grid spacing dv^(1/3) = 0.2443

     iter     time        total  log10-change:
                         energy   eigst   dens
iter:   1 14:45:35   -10.866142
iter:   2 14:45:36   -10.866963   -1.97  -0.80
iter:   3 14:45:36   -11.215354   -1.07  -0.81
iter:   4 14:45:36   -10.828476   -2.03  -0.61
iter:   5 14:45:37   -10.806426   -3.00  -1.21
iter:   6 14:45:37   -10.781924   -2.69  -1.36
iter:   7 14:45:37   -10.781808   -4.32  -2.48
iter:   8 14:45:38   -10.781808c  -5.40  -2.93
iter:   9 14:45:38   -10.781948c  -5.24  -2.93
iter:  10 14:45:38   -10.781855c  -5.94  -2.48
iter:  11 14:45:39   -10.781806c  -5.89  -2.70
iter:  12 14:45:39   -10.781799c  -6.00  -3.02
iter:  13 14:45:40   -10.781799c  -7.38  -4.60c
iter:  14 14:45:40   -10.781799c  -8.20c -4.56c

Converged after 14 iterations.

Dipole moment: (-2.923916, -2.923916, -2.923916) |e|*Ang

Energy contributions relative to reference atoms: (reference = -15772.688500)

Kinetic:        +15.687448
Potential:      -13.753344
External:        +0.000000
XC:             -12.665863
Entropy (-ST):   -0.000000
Local:           -0.050040
SIC:             +0.000000
--------------------------
Free energy:    -10.781799
Extrapolated:   -10.781799

Showing only first 2 kpts
 Kpt  Band  Eigenvalues  Occupancy
  0     2      4.79614    2.00000
  0     3      4.96446    2.00000
  0     4      7.71350    0.00000
  0     5      8.33100    0.00000

  1     2      5.23213    2.00000
  1     3      5.23213    2.00000
  1     4      7.94126    0.00000
  1     5      8.00074    0.00000


Fermi level: 5.84558

Gap: 0.814 eV
Transition (v -> c):
  (s=0, k=1, n=3, [0.06, 0.06, 0.06]) -> (s=0, k=55, n=4, [0.44, 0.44, -0.06])
Direct/indirect transitions are different
Direct gap: 2.709 eV
Transition at: (s=0, k=1, n=3, [0.06, 0.06, 0.06])
Writing to Si_gs.gpw (mode='')

Timing:                              incl.     excl.
-----------------------------------------------------------
Hamiltonian:                         0.034     0.000   0.0% |
 Atomic:                             0.030     0.000   0.0% |
  XC Correction:                     0.030     0.030   0.0% |
 Calculate atomic Hamiltonians:      0.000     0.000   0.0% |
 Communicate:                        0.000     0.000   0.0% |
 Initialize Hamiltonian:             0.000     0.000   0.0% |
 Poisson:                            0.000     0.000   0.0% |
 XC 3D grid:                         0.003     0.003   0.0% |
LCAO initialization:                 0.237     0.006   0.0% |
 LCAO eigensolver:                   0.027     0.001   0.0% |
  Calculate projections:             0.001     0.001   0.0% |
  DenseAtomicCorrection:             0.003     0.003   0.0% |
  Distribute overlap matrix:         0.000     0.000   0.0% |
  Orbital Layouts:                   0.003     0.003   0.0% |
  Potential matrix:                  0.014     0.014   0.0% |
  Sum over cells:                    0.005     0.005   0.0% |
 LCAO to grid:                       0.072     0.072   0.0% |
 Set positions (LCAO WFS):           0.132     0.020   0.0% |
  Basic WFS set positions:           0.001     0.001   0.0% |
  Basis functions set positions:     0.000     0.000   0.0% |
  P tci:                             0.043     0.043   0.0% |
  ST tci:                            0.062     0.062   0.0% |
  mktci:                             0.006     0.006   0.0% |
PWDescriptor:                        0.003     0.003   0.0% |
SCF-cycle:                           4.991     0.061   0.0% |
 Davidson:                           4.151     0.669   0.1% |
  Apply H:                           0.673     0.636   0.1% |
   HMM T:                            0.037     0.037   0.0% |
  Subspace diag:                     0.868     0.030   0.0% |
   calc_h_matrix:                    0.754     0.080   0.0% |
    Apply H:                         0.675     0.636   0.1% |
     HMM T:                          0.039     0.039   0.0% |
   diagonalize:                      0.053     0.053   0.0% |
   rotate_psi:                       0.031     0.031   0.0% |
  calc. matrices:                    1.771     0.428   0.1% |
   Apply H:                          1.343     1.269   0.2% |
    HMM T:                           0.074     0.074   0.0% |
  diagonalize:                       0.125     0.125   0.0% |
  rotate_psi:                        0.045     0.045   0.0% |
 Density:                            0.332     0.000   0.0% |
  Atomic density matrices:           0.018     0.018   0.0% |
  Mix:                               0.012     0.012   0.0% |
  Multipole moments:                 0.001     0.001   0.0% |
  Pseudo density:                    0.300     0.290   0.0% |
   Symmetrize density:               0.010     0.010   0.0% |
 Hamiltonian:                        0.434     0.002   0.0% |
  Atomic:                            0.382     0.004   0.0% |
   XC Correction:                    0.379     0.379   0.1% |
  Calculate atomic Hamiltonians:     0.003     0.003   0.0% |
  Communicate:                       0.000     0.000   0.0% |
  Poisson:                           0.001     0.001   0.0% |
  XC 3D grid:                        0.045     0.045   0.0% |
 Orthonormalize:                     0.014     0.002   0.0% |
  calc_s_matrix:                     0.004     0.004   0.0% |
  inverse-cholesky:                  0.002     0.002   0.0% |
  projections:                       0.005     0.005   0.0% |
  rotate_psi_s:                      0.001     0.001   0.0% |
Set symmetry:                        0.021     0.021   0.0% |
Other:                             727.895   727.895  99.3% |---------------------------------------|
-----------------------------------------------------------
Total:                                       733.182 100.0%

Memory usage: 232.11 MiB
Date: Sat Mar 29 14:57:48 2025
